REMARK  10 active torsions:
REMARK  status: ('A' for Active; 'I' for Inactive)
REMARK    1  A    between atoms: C_7  and  N_8 
REMARK    2  A    between atoms: N_8  and  C_9 
REMARK    3  A    between atoms: C_17  and  O_18 
REMARK    4  A    between atoms: O_18  and  C_19 
REMARK    5  A    between atoms: C_19  and  C_20 
REMARK    6  A    between atoms: C_20  and  O_21 
REMARK    7  A    between atoms: C_23  and  O_24 
REMARK    8  A    between atoms: O_24  and  C_25 
REMARK    9  A    between atoms: C_25  and  C_26 
REMARK   10  A    between atoms: C_26  and  O_27 
ROOT
HETATM    1  C   UNL     1      -2.908   2.833   2.790  1.00  0.00     0.018 C 
HETATM    2  C   UNL     1      -1.884   3.257   2.317  1.00  0.00    -0.078 C 
HETATM    3  C   UNL     1      -0.669   3.772   1.770  1.00  0.00     0.018 A 
HETATM    4  C   UNL     1      -0.383   5.135   1.882  1.00  0.00     0.021 A 
HETATM    5  C   UNL     1       0.798   5.644   1.345  1.00  0.00     0.003 A 
HETATM    6  C   UNL     1       1.699   4.788   0.709  1.00  0.00     0.024 A 
HETATM    7  C   UNL     1       1.442   3.412   0.618  1.00  0.00     0.015 A 
HETATM    8  C   UNL     1       0.233   2.918   1.122  1.00  0.00     0.044 A 
ENDROOT
BRANCH   7   9
HETATM    9  N   UNL     1       2.281   2.542  -0.132  1.00  0.00    -0.245 NA
HETATM   10  H   UNL     1       1.989   2.636  -1.103  1.00  0.00     0.135 HD
BRANCH   9  11
HETATM   11  C   UNL     1       3.708   2.564  -0.095  1.00  0.00     0.098 A 
HETATM   12  N   UNL     1       4.308   3.175   0.945  1.00  0.00    -0.342 N 
HETATM   13  C   UNL     1       5.640   3.132   0.987  1.00  0.00     0.182 A 
HETATM   14  HN  UNL     1       3.767   3.649   1.668  1.00  0.00     0.167 HD
HETATM   15  N   UNL     1       6.435   2.535   0.093  1.00  0.00    -0.351 N 
HETATM   16  C   UNL     1       5.837   1.919  -0.932  1.00  0.00     0.049 A 
HETATM   17  HN  UNL     1       7.450   2.549   0.188  1.00  0.00     0.166 HD
HETATM   18  C   UNL     1       6.632   1.307  -1.896  1.00  0.00     0.070 A 
HETATM   19  C   UNL     1       4.449   1.879  -1.086  1.00  0.00     0.032 A 
HETATM   20  C   UNL     1       6.117   0.676  -3.046  1.00  0.00     0.104 A 
HETATM   21  C   UNL     1       4.729   0.586  -3.182  1.00  0.00     0.103 A 
HETATM   22  C   UNL     1       3.914   1.192  -2.209  1.00  0.00     0.056 A 
BRANCH  20  23
HETATM   23  O   UNL     1       7.125   0.260  -3.878  1.00  0.00    -0.346 OA
BRANCH  23  24
HETATM   24  C   UNL     1       6.848   0.152  -5.265  1.00  0.00     0.201 C 
BRANCH  24  25
HETATM   25  C   UNL     1       8.094   0.316  -6.128  1.00  0.00     0.193 C 
BRANCH  25  26
HETATM   26  O   UNL     1       7.670   0.086  -7.475  1.00  0.00    -0.394 OA
HETATM   27  C   UNL     1       8.733   0.126  -8.409  1.00  0.00     0.201 C 
ENDBRANCH  25  26
ENDBRANCH  24  25
ENDBRANCH  23  24
ENDBRANCH  20  23
BRANCH  21  28
HETATM   28  O   UNL     1       3.990   0.074  -4.210  1.00  0.00    -0.346 OA
BRANCH  28  29
HETATM   29  C   UNL     1       4.275  -1.249  -4.663  1.00  0.00     0.201 C 
BRANCH  29  30
HETATM   30  C   UNL     1       3.091  -2.197  -4.502  1.00  0.00     0.193 C 
BRANCH  30  31
HETATM   31  O   UNL     1       1.947  -1.712  -5.205  1.00  0.00    -0.394 OA
HETATM   32  C   UNL     1       0.901  -2.677  -5.205  1.00  0.00     0.201 C 
ENDBRANCH  30  31
ENDBRANCH  29  30
ENDBRANCH  28  29
ENDBRANCH  21  28
ENDBRANCH   9  11
ENDBRANCH   7   9
TORSDOF 10
