REMARK  8 active torsions:
REMARK  status: ('A' for Active; 'I' for Inactive)
REMARK    1  A    between atoms: O_4  and  C_18 
REMARK    2  A    between atoms: O_4  and  C_19 
REMARK    3  A    between atoms: O_5  and  C_22 
REMARK    4  A    between atoms: N_6  and  C_12 
REMARK    5  A    between atoms: N_7  and  C_25 
REMARK    6  A    between atoms: N_7  and  C_26 
REMARK    7  A    between atoms: C_12  and  C_15 
REMARK    8  A    between atoms: C_15  and  C_18 
ROOT
HETATM    1  N   UNL     1       1.571  -3.931  -0.820  1.00  0.00    -0.351 N 
HETATM    2  HN  UNL     1       2.209  -4.648  -1.165  1.00  0.00     0.166 HD
HETATM    3  N   UNL     1      -0.668  -3.267  -0.326  1.00  0.00    -0.338 N 
HETATM    4  HN  UNL     1      -1.662  -3.494  -0.324  1.00  0.00     0.168 HD
HETATM    5  C   UNL     1       3.049  -0.253   0.405  1.00  0.00     0.103 A 
HETATM    6  C   UNL     1       1.154  -1.746   0.082  1.00  0.00     0.038 A 
HETATM    7  C   UNL     1       1.685  -0.503   0.501  1.00  0.00     0.057 A 
HETATM    8  C   UNL     1       3.897  -1.239  -0.083  1.00  0.00     0.103 A 
HETATM    9  C   UNL     1       2.012  -2.736  -0.416  1.00  0.00     0.050 A 
HETATM   10  C   UNL     1       3.373  -2.462  -0.502  1.00  0.00     0.070 A 
HETATM   11  C   UNL     1      -0.215  -2.074   0.098  1.00  0.00     0.119 A 
HETATM   12  C   UNL     1       0.250  -4.140  -0.750  1.00  0.00     0.182 A 
ENDROOT
BRANCH   5  13
HETATM   13  O   UNL     1       3.526   0.939   0.872  1.00  0.00    -0.348 OA
BRANCH  13  14
HETATM   14  C   UNL     1       3.557   1.922  -0.171  1.00  0.00     0.177 C 
BRANCH  14  15
HETATM   15  C   UNL     1       3.303   3.294   0.453  1.00  0.00     0.057 C 
BRANCH  15  16
HETATM   16  C   UNL     1       1.888   3.440   1.041  1.00  0.00     0.274 C 
BRANCH  16  17
HETATM   17  N   UNL     1       0.812   3.189   0.069  1.00  0.00     0.092 N 
HETATM   18  C   UNL     1      -0.507   3.150   0.742  1.00  0.00     0.298 C 
HETATM   19  C   UNL     1      -1.637   2.901  -0.271  1.00  0.00     0.198 C 
HETATM   20  O   UNL     1      -1.656   3.917  -1.281  1.00  0.00    -0.388 OA
HETATM   21  C   UNL     1      -0.398   3.944  -1.968  1.00  0.00     0.198 C 
HETATM   22  C   UNL     1       0.762   4.213  -0.997  1.00  0.00     0.298 C 
ENDBRANCH  16  17
ENDBRANCH  15  16
ENDBRANCH  14  15
ENDBRANCH  13  14
ENDBRANCH   5  13
BRANCH   8  23
HETATM   23  O   UNL     1       5.235  -1.005  -0.254  1.00  0.00    -0.353 OA
HETATM   24  C   UNL     1       5.941  -1.265   0.958  1.00  0.00     0.210 C 
ENDBRANCH   8  23
BRANCH  11  25
HETATM   25  N   UNL     1      -1.140  -1.125   0.605  1.00  0.00    -0.342 N 
HETATM   26  H   UNL     1      -0.912  -0.930   1.575  1.00  0.00     0.167 HD
BRANCH  25  27
HETATM   27  C   UNL     1      -2.517  -1.029   0.324  1.00  0.00     0.035 A 
HETATM   28  C   UNL     1      -3.378  -0.458   1.273  1.00  0.00     0.056 A 
HETATM   29  C   UNL     1      -4.733  -0.271   0.984  1.00  0.00     0.074 A 
HETATM   30 CL   UNL     1      -5.763   0.415   2.181  1.00  0.00    -0.081 Cl
HETATM   31  C   UNL     1      -5.233  -0.628  -0.264  1.00  0.00     0.138 A 
HETATM   32  F   UNL     1      -6.528  -0.444  -0.565  1.00  0.00    -0.204 F 
HETATM   33  C   UNL     1      -4.394  -1.172  -1.228  1.00  0.00     0.046 A 
HETATM   34  C   UNL     1      -3.041  -1.367  -0.933  1.00  0.00     0.032 A 
ENDBRANCH  25  27
ENDBRANCH  11  25
TORSDOF 8
